'https://gitlab.com/DL_POLY_Classic/dl_poly'
